#     Step Nr.          Time[fs]        Kin.[a.u.]          Temp[K]            Pot.[a.u.]        Cons Qty[a.u.]        UsedTime[s]
         0            0.000000         2.052096342       300.000000000     -8501.713091349     -8499.660519984         0.000000000
         1            1.000000         2.021723784       295.559775984     -8501.682262183     -8499.659444327       253.693244024
         2            2.000000         1.949829685       285.049436280     -8501.606975299     -8499.655454809        24.784738399
         3            3.000000         1.900910051       277.897778676     -8501.553650364     -8499.650489509        24.869925956
         4            4.000000         1.941746502       283.867739820     -8501.595487394     -8499.650957558        24.918293792
         5            5.000000         2.062137540       301.467942398     -8501.723479508     -8499.658023290        21.856118680
         6            6.000000         2.166411782       316.711998988     -8501.834512730     -8499.664214997        22.354781827
         7            7.000000         2.170178378       317.262645030     -8501.837950616     -8499.663282997        22.221298273
         8            8.000000         2.083894663       304.648659086     -8501.746128598     -8499.657130717        24.931594579
         9            9.000000         1.990997798       291.067883640     -8501.649077376     -8499.652381891        22.016182158
        10           10.000000         1.960664471       286.633394953     -8501.619175876     -8499.652247360        25.112007283
        11           11.000000         2.000334836       292.432883592     -8501.661758542     -8499.654607869        22.240195451
        12           12.000000         2.075277274       303.388866016     -8501.739963361     -8499.657311746        24.959816067
        13           13.000000         2.141372481       313.051454308     -8501.808858066     -8499.659528675        22.108950754
        14           14.000000         2.164185226       316.386494250     -8501.832787438     -8499.660032716        22.035329194
        15           15.000000         2.139317672       312.751057706     -8501.805910206     -8499.657388374        22.840825882
        16           16.000000         2.107390225       308.083521495     -8501.770266556     -8499.653027836        25.113537776
        17           17.000000         2.126385569       310.860488077     -8501.789066961     -8499.652177576        22.008468455
        18           18.000000         2.204786926       322.322136625     -8501.872716424     -8499.656737754        22.073828396
        19           19.000000         2.281714478       333.568326758     -8501.955209567     -8499.661557138        22.122574441
        20           20.000000         2.292537398       335.150550824     -8501.966832670     -8499.661547133        22.298359498
        21           21.000000         2.235135982       326.758924927     -8501.906564563     -8499.657827338        22.020064998
        22           22.000000         2.159124400       315.646642221     -8501.828489101     -8499.654896651        22.148858800
        23           23.000000         2.108333049       308.221354753     -8501.778172125     -8499.654506156        24.988495971
        24           24.000000         2.092061039       305.842517564     -8501.763652220     -8499.655394534        22.104292254
        25           25.000000         2.097134805       306.584261416     -8501.770667106     -8499.656465568        21.817532577
        26           26.000000         2.105407577       307.793674212     -8501.780761447     -8499.657405105        22.007575025
        27           27.000000         2.102824125       307.415994343     -8501.779124879     -8499.657458329        22.389825567
        28           28.000000         2.090386609       305.597729334     -8501.766069906     -8499.655940598        22.203606874
        29           29.000000         2.089509744       305.469538708     -8501.764478858     -8499.654321292        22.062407974
        30           30.000000         2.120155855       309.949754055     -8501.796875434     -8499.655152180        22.014112133
        31           31.000000         2.170270537       317.276117885     -8501.850682558     -8499.657893243        22.014821508
        32           32.000000         2.203502275       322.134331091     -8501.886435987     -8499.659421088        22.178016888
        33           33.000000         2.198584900       321.415450347     -8501.881629265     -8499.658500973        22.036138976
        34           34.000000         2.166371538       316.706115555     -8501.848904367     -8499.656938043        22.026684386
        35           35.000000         2.129484789       311.313569252     -8501.812266325     -8499.656129431        22.042743991
        36           36.000000         2.102127303       307.314124481     -8501.785657312     -8499.655821594        22.032296221
        37           37.000000         2.088782582       305.363233488     -8501.773508882     -8499.655962750        22.303544567
        38           38.000000         2.085893912       304.940933133     -8501.772284663     -8499.656570217        22.609520914
        39           39.000000         2.084524072       304.740673555     -8501.772325749     -8499.656920329        21.902416977
        40           40.000000         2.080264780       304.117999351     -8501.768573071     -8499.656363258        22.341683990
        41           41.000000         2.080788040       304.194495654     -8501.769285629     -8499.655486407        35.421065338
        42           42.000000         2.097490559       306.636269834     -8501.787184072     -8499.655608148        22.365123689
        43           43.000000         2.128936019       311.233343373     -8501.820979498     -8499.656864707        22.886121863
        44           44.000000         2.158742046       315.590745182     -8501.853079381     -8499.658036476        21.934934114
        45           45.000000         2.171239386       317.417755781     -8501.866871474     -8499.658179546        22.006587369
        46           46.000000         2.164232077       316.393343524     -8501.860471256     -8499.657612689        21.998192982
        47           47.000000         2.145218583       313.613723423     -8501.842226776     -8499.657195728        22.182870451
        48           48.000000         2.120456016       309.993635111     -8501.818560309     -8499.657103144        22.091652882
        49           49.000000         2.091512977       305.762395278     -8501.790759949     -8499.657062919        22.127675838
        50           50.000000         2.058594566       300.949988122     -8501.758779039     -8499.656832010        22.365712705
        51           51.000000         2.024920740       296.027145249     -8501.725632328     -8499.656213401        21.991796155
        52           52.000000         1.999440670       292.302163690     -8501.700430411     -8499.655372964        22.114749815
        53           53.000000         1.993672635       291.458923306     -8501.695403053     -8499.655019112        22.096275254
        54           54.000000         2.011950941       294.131064862     -8501.715453532     -8499.655709972        22.099043135
        55           55.000000         2.044774613       298.929622035     -8501.750593566     -8499.656944871        22.079976086
        56           56.000000         2.076117260       303.511665110     -8501.783572154     -8499.657490099        22.200971659
        57           57.000000         2.098808352       306.828920573     -8501.806926785     -8499.657050624        22.044692468
        58           58.000000         2.118895249       309.765463486     -8501.827652922     -8499.656573026        22.096114746
        59           59.000000         2.143331199       313.337803154     -8501.853537801     -8499.656886723        22.092692620
        60           60.000000         2.168656410       317.040145471     -8501.880798952     -8499.657662798        22.285252520
        61           61.000000         2.183911978       319.270387018     -8501.897869939     -8499.658291275        21.960922522
        62           62.000000         2.178926487       318.541548265     -8501.894308272     -8499.658506647        21.843450355
        63           63.000000         2.151111047       314.475154337     -8501.866941824     -8499.657739290        22.217944765
        64           64.000000         2.112475474       308.826944041     -8501.827773939     -8499.655998473        22.283724316
        65           65.000000         2.086447424       305.021852119     -8501.801767901     -8499.654827356        22.045452314
        66           66.000000         2.088516216       305.324292897     -8501.805585619     -8499.655392299        22.076275353
        67           67.000000         2.111508277       308.685547558     -8501.831262749     -8499.656888730        22.053050938
        68           68.000000         2.134963809       312.114557831     -8501.856853023     -8499.657820294        22.113891747
        69           69.000000         2.145743622       313.690480017     -8501.868609822     -8499.657578860        22.043416019
        70           70.000000         2.147484694       313.945010752     -8501.870705647     -8499.656704176        22.084318896
        71           71.000000         2.152876199       314.733205408     -8501.876898726     -8499.656266572        21.896310353
        72           72.000000         2.168685216       317.044356654     -8501.894466208     -8499.656771185        22.593160076
        73           73.000000         2.188509928       319.942570360     -8501.916548675     -8499.657753457        22.408072488
        74           74.000000         2.197974236       321.326176138     -8501.928188551     -8499.658630348        22.103126233
        75           75.000000         2.184027018       319.287204855     -8501.915768543     -8499.658844579        21.930611570
        76           76.000000         2.144482421       313.506102572     -8501.876411896     -8499.657723765        21.923875032
        77           77.000000         2.095827638       306.393164054     -8501.827112551     -8499.655793830        22.231266591
        78           78.000000         2.063884071       301.723271150     -8501.795613049     -8499.654983411        21.965716331
        79           79.000000         2.058956883       301.002955913     -8501.792972346     -8499.656039466        21.883272847
        80           80.000000         2.066928871       302.168396518     -8501.803549539     -8499.657427894        22.114086145
        81           81.000000         2.068854668       302.449932533     -8501.806774757     -8499.657521330        22.030284966
        82           82.000000         2.062941944       301.585539884     -8501.800954894     -8499.656422969        22.324245768
        83           83.000000         2.064230496       301.773915782     -8501.802497768     -8499.655502037        22.050019566
        84           84.000000         2.085900456       304.941889809     -8501.825688042     -8499.655854885        21.942279828
        85           85.000000         2.123822690       310.485815864     -8501.866160998     -8499.657231766        22.060798156
        86           86.000000         2.159396251       315.686384615     -8501.904144583     -8499.658450877        22.115261228
        87           87.000000         2.174821984       317.941502853     -8501.921162236     -8499.658834541        22.066884711
        88           88.000000         2.163855639       316.338311283     -8501.910938630     -8499.658362015        22.020158657
        89           89.000000         2.133840928       311.950401697     -8501.880955246     -8499.657186426        22.023999394
        90           90.000000         2.102052843       307.303239011     -8501.849143572     -8499.655976342        22.130098594
        91           91.000000         2.084942796       304.801887685     -8501.833001785     -8499.655781202        22.958508000
        92           92.000000         2.084399127       304.722407560     -8501.834653109     -8499.656830687        22.447400039
        93           93.000000         2.085821305       304.930318607     -8501.838282962     -8499.657906211        22.226673474
        94           94.000000         2.075036100       303.353608270     -8501.828337305     -8499.657629892        22.040692775
        95           95.000000         2.056433083       300.633996612     -8501.809361685     -8499.656165085        22.091893642
        96           96.000000         2.050209242       299.724121013     -8501.803206370     -8499.655166895        22.015753131
        97           97.000000         2.069980882       302.614575988     -8501.824789556     -8499.655928050        21.610781916
        98           98.000000         2.106169463       307.905055830     -8501.863761372     -8499.657662873        22.188700234
        99           99.000000         2.135500275       312.192984859     -8501.895112099     -8499.658627548        22.068026199
       100          100.000000         2.143470131       313.358113797     -8501.903800448     -8499.658285630        22.192989808
       101          101.000000         2.133549635       311.907816999     -8501.893997159     -8499.657345473        22.129331670
       102          102.000000         2.118166818       309.658972711     -8501.879120116     -8499.656804601        22.322421969
       103          103.000000         2.104453126       307.654141171     -8501.866642263     -8499.657008490        23.512651729
       104          104.000000         2.089888399       305.524895071     -8501.853391832     -8499.657308139        22.182768687
       105          105.000000         2.070064962       302.626867802     -8501.834507276     -8499.657254026        22.157283763
       106          106.000000         2.045102127       298.977501866     -8501.810217393     -8499.656961711        22.091994151
       107          107.000000         2.020082739       295.319868301     -8501.785541108     -8499.656372695        22.184938634
       108          108.000000         2.004839822       293.091476376     -8501.770452450     -8499.655629612        23.448308909
       109          109.000000         2.009616321       293.789762176     -8501.776199462     -8499.655732904        22.194307936
       110          110.000000         2.032117023       297.079184044     -8501.800902435     -8499.657088661        21.928363907
       111          111.000000         2.054447328       300.343695198     -8501.825199495     -8499.658221887        22.332059522
       112          112.000000         2.061386003       301.358073715     -8501.832756169     -8499.658018449        22.668038009
       113          113.000000         2.055094409       300.438293293     -8501.826312499     -8499.657061116        21.987665853
       114          114.000000         2.048645408       299.495501073     -8501.820035374     -8499.656447118        21.900858908
       115          115.000000         2.050326475       299.741259588     -8501.822806275     -8499.656769602        22.486316869
       116          116.000000         2.055211193       300.455366060     -8501.829336774     -8499.657663858        22.190166094
       117          117.000000         2.050454727       299.760008962     -8501.825781250     -8499.658129281        22.104921708
       118          118.000000         2.029366258       296.677044195     -8501.804812007     -8499.657534293        22.286454028
       119          119.000000         2.000503661       292.457564373     -8501.775341688     -8499.656241090        22.018591237
       120          120.000000         1.982874096       289.880263593     -8501.757320851     -8499.655196660        22.108913299
       121          121.000000         1.991590729       291.154565345     -8501.766766371     -8499.655300686        22.153000494
       122          122.000000         2.024947356       296.031036263     -8501.802105440     -8499.656676471        22.231144871
       123          123.000000         2.063091521       301.607406845     -8501.842534408     -8499.658362346        22.529978228
       124          124.000000         2.082954774       304.511254844     -8501.863444122     -8499.658812647        22.572602795
       125          125.000000         2.078716663       303.891676985     -8501.858749537     -8499.657764946        22.147897017
       126          126.000000         2.065169522       301.911193820     -8501.844529439     -8499.656510700        22.093294738
       127          127.000000         2.060549724       301.235816417     -8501.840207431     -8499.656239146        23.841572445
       128          128.000000         2.069789883       302.586653434     -8501.850688165     -8499.656919661        22.359977672
       129          129.000000         2.083034054       304.522844855     -8501.865542268     -8499.657974549        22.173461128
       130          130.000000         2.084460865       304.731433253     -8501.868182147     -8499.658636176        21.982379294
       131          131.000000         2.064864146       301.866550254     -8501.848585259     -8499.658092250        21.962596248
       132          132.000000         2.032120221       297.079651520     -8501.814825548     -8499.656548250        21.904710995
       133          133.000000         2.007734774       293.514695065     -8501.789704258     -8499.655305718        22.141288574
       134          134.000000         2.008742669       293.662041195     -8501.791418846     -8499.655526684        22.090358638
       135          135.000000         2.031509873       296.990423530     -8501.816207723     -8499.657077307        22.778361918
       136          136.000000         2.054734887       300.385733952     -8501.841280828     -8499.658462291        22.024719072
       137          137.000000         2.060203041       301.185134199     -8501.847013514     -8499.658269328        22.154140745
       138          138.000000         2.051174019       299.865163648     -8501.837048536     -8499.656883700        22.143197780
       139          139.000000         2.046603678       299.197016627     -8501.832189197     -8499.656154995        22.983762040
       140          140.000000         2.057216983       300.748596488     -8501.843960661     -8499.656881664        22.448474849
       141          141.000000         2.074896170       303.333151698     -8501.863027488     -8499.657841561        22.065353998
       142          142.000000         2.086133591       304.975972286     -8501.875011189     -8499.658160425        23.059950761
       143          143.000000         2.084471207       304.732945102     -8501.873754074     -8499.658138350        21.980949976
       144          144.000000         2.070170603       302.642311761     -8501.859496726     -8499.657757147        22.124167767
       145          145.000000         2.049835364       299.669463143     -8501.838728189     -8499.656906714        22.083409672
       146          146.000000         2.035885747       297.630141235     -8501.824519519     -8499.656241283        23.248558571
       147          147.000000         2.037374955       297.847851409     -8501.826691940     -8499.656528920        22.239106184
       148          148.000000         2.050937477       299.830583175     -8501.841487740     -8499.657374266        21.885627417
       149          149.000000         2.065650413       301.981496259     -8501.857031705     -8499.657821153        21.883297745
       150          150.000000         2.075521526       303.424573657     -8501.866987796     -8499.657523197        22.630658797
       151          151.000000         2.084394682       304.721757743     -8501.875785450     -8499.657064299        22.922023735
       152          152.000000         2.097597537       306.651909098     -8501.889760195     -8499.657449975        22.309574215
       153          153.000000         2.110338760       308.514573600     -8501.903726403     -8499.658282895        23.626397684
       154          154.000000         2.112311751       308.803008950     -8501.906208321     -8499.658392527        22.008261012
       155          155.000000         2.101589976       307.235571571     -8501.895339349     -8499.657840635        23.158774828
       156          156.000000         2.085007627       304.811365402     -8501.878797941     -8499.657475285        21.964885802
       157          157.000000         2.067829993       302.300133290     -8501.862106391     -8499.657557316        22.005978772
       158          158.000000         2.049859317       299.672964795     -8501.844597880     -8499.657621148        22.136538977
       159          159.000000         2.030519228       296.845599137     -8501.825445824     -8499.657420157        25.903639419
       160          160.000000         2.011655569       294.087883727     -8501.806861124     -8499.657322941        22.145347610
       161          161.000000         1.994686568       291.607152147     -8501.790248677     -8499.657319184        22.204819290
       162          162.000000         1.980805451       289.577844348     -8501.776420589     -8499.657030096        22.242758201
       163          163.000000         1.974928609       288.718697308     -8501.770352481     -8499.656516019        22.244426933
       164          164.000000         1.984093391       290.058514824     -8501.779783058     -8499.656477018        22.136937799
       165          165.000000         2.008179872       293.579764860     -8501.805051634     -8499.657368116        22.620644848
       166          166.000000         2.034778918       297.468331602     -8501.833081388     -8499.658515992        22.338576590
       167          167.000000         2.048821961       299.521311686     -8501.847580473     -8499.658693229        22.478466211
       168          168.000000         2.048637148       299.494293600     -8501.846660071     -8499.657681890        22.091750168
       169          169.000000         2.047594116       299.341810712     -8501.845098889     -8499.656891668        22.196231232
       170          170.000000         2.056798845       300.687468024     -8501.854912209     -8499.657231068        22.365078304
       171          171.000000         2.072555408       302.990951037     -8501.871843735     -8499.658136783        22.211301510
       172          172.000000         2.082287066       304.413641185     -8501.882394887     -8499.658684014        22.218970143
       173          173.000000         2.078252772       303.823859848     -8501.878251320     -8499.658298927        22.181933683
       174          174.000000         2.065122846       301.904370190     -8501.864587950     -8499.657488296        22.111915307
       175          175.000000         2.054424679       300.340384161     -8501.853620584     -8499.656943296        22.264722742
       176          176.000000         2.054963802       300.419199550     -8501.854280043     -8499.656790152        22.175889575
       177          177.000000         2.068934154       302.461552781     -8501.868869279     -8499.657135991        22.117808255
       178          178.000000         2.090658353       305.637456213     -8501.891652849     -8499.657918606        21.992795543
       179          179.000000         2.107928794       308.162255871     -8501.910050750     -8499.658761187        21.779400830
       180          180.000000         2.109146601       308.340289435     -8501.911647661     -8499.658845354        22.705134357
       181          181.000000         2.094193591       306.154279540     -8501.896028223     -8499.657875931        22.944008288
       182          182.000000         2.076614208       303.584315010     -8501.877776221     -8499.656896393        22.044081824
       183          183.000000         2.069948906       302.609901446     -8501.871516835     -8499.656994118        22.252634484
       184          184.000000         2.073516557       303.131463318     -8501.876352600     -8499.657952532        22.230654694
       185          185.000000         2.074916601       303.336138414     -8501.878715837     -8499.658603457        22.111090965
       186          186.000000         2.065712137       301.990519793     -8501.869396914     -8499.658175006        22.175491009
       187          187.000000         2.051368455       299.893588642     -8501.854459705     -8499.657268632        22.278581030
       188          188.000000         2.043559836       298.752031356     -8501.846643440     -8499.656951693        22.169219594
       189          189.000000         2.046867337       299.235561340     -8501.850524954     -8499.657219992        21.984049186
       190          190.000000         2.057804999       300.834559762     -8501.861933985     -8499.657387180        22.420961781
       191          191.000000         2.072447557       302.975184032     -8501.876932050     -8499.657437057        22.328716843
       192          192.000000         2.088425851       305.311082339     -8501.893432999     -8499.657649302        22.351489527
       193          193.000000         2.102960258       307.435895819     -8501.908370234     -8499.657733690        21.999275169
       194          194.000000         2.115629105       309.287979539     -8501.921152670     -8499.657517986        22.257154847
       195          195.000000         2.129117127       311.259819904     -8501.935067312     -8499.657601733        22.237735147
       196          196.000000         2.142103963       313.158391089     -8501.949093855     -8499.658282054        22.175967867
       197          197.000000         2.146637081       313.821096477     -8501.954438907     -8499.658716213        22.373869148
       198          198.000000         2.138221445       312.590798063     -8501.945952673     -8499.658250482        22.101253218
       199          199.000000         2.123818466       310.485198363     -8501.931100927     -8499.657392654        21.831962507
       200          200.000000         2.115372714       309.250497139     -8501.922782322     -8499.657099652        22.095793684
       201          201.000000         2.116788220       309.457432817     -8501.925204068     -8499.657674812        22.113498920
       202          202.000000         2.120037254       309.932415423     -8501.929556018     -8499.658334447        22.042833744
       203          203.000000         2.115417583       309.257056629     -8501.925300499     -8499.658243317        22.169400142
       204          204.000000         2.102684927       307.395644603     -8501.912345988     -8499.657556896        22.158772701
       205          205.000000         2.090668637       305.638959665     -8501.900071953     -8499.656828580        22.551470758
       206          206.000000         2.089044482       305.401521187     -8501.898783550     -8499.656688768        22.513067039
       207          207.000000         2.099877375       306.985203119     -8501.910610092     -8499.657199515        22.308554640
       208          208.000000         2.116258932       309.380055158     -8501.928228342     -8499.657941766        22.053576284
       209          209.000000         2.127555991       311.031594470     -8501.940646848     -8499.658553943        21.951522524
       210          210.000000         2.125832573       310.779644590     -8501.939451010     -8499.658557364        22.012752939
       211          211.000000         2.112737340       308.865226686     -8501.926032413     -8499.657698286        22.311623751
       212          212.000000         2.101203597       307.179086171     -8501.914159423     -8499.656815468        22.276574712
       213          213.000000         2.103531679       307.519433002     -8501.917265569     -8499.657042238        22.184963245
       214          214.000000         2.117109661       309.504424919     -8501.932430021     -8499.658065957        22.120919226
       215          215.000000         2.128050781       311.103928809     -8501.944580557     -8499.658697475        23.253363039
       216          216.000000         2.126413128       310.864517068     -8501.943389084     -8499.658550585        22.136830092
       217          217.000000         2.113591135       308.990044701     -8501.930377154     -8499.657756037        22.129810723
       218          218.000000         2.100700909       307.105597128     -8501.917124934     -8499.656781964        22.235409532
       219          219.000000         2.100453836       307.069477021     -8501.917347572     -8499.656632708        22.207763297
       220          220.000000         2.114255329       309.087144560     -8501.932732471     -8499.657586328        22.056799043
       221          221.000000         2.129367925       311.296484596     -8501.949490857     -8499.658586615        22.273177458
       222          222.000000         2.131901823       311.666920207     -8501.952880150     -8499.658779619        22.133551229
       223          223.000000         2.119502408       309.854225342     -8501.940551161     -8499.658174569        21.998971402
       224          224.000000         2.101320221       307.196135559     -8501.922353123     -8499.657475908        22.189889116
       225          225.000000         2.088209459       305.279447495     -8501.909789034     -8499.657336167        22.228188176
       226          226.000000         2.083712411       304.622015179     -8501.906277127     -8499.657631733        22.217273253
       227          227.000000         2.084705498       304.767196588     -8501.908210712     -8499.657878191        21.959900848