1441
Lattice="25.652 0.0 0.0 0.0 24.653 0.0 0.0 0.0 50.9068" Properties=species:S:1:pos:R:3:Z:I:1 i=2000100, E=-6.3785344403 pbc="F F F" time=2000100.000,
C      0.01000000       1.27000000       0.07000000        6 
C      1.43000000       1.27000000       0.07000000        6 
C      2.14000000       2.50000000       0.07000000        6 
C      3.57000000       2.50000000       0.06000000        6 
C      0.01000000       3.74000000       0.07000000        6 
C      1.43000000       3.74000000       0.07000000        6 
C      2.14000000       4.97000000       0.07000000        6 
C      3.57000000       4.97000000       0.07000000        6 
C      0.01000000       6.20000000       0.07000000        6 
C      1.43000000       6.20000000       0.07000000        6 
C      2.14000000       7.44000000       0.07000000        6 
C      3.57000000       7.44000000       0.07000000        6 
C      0.01000000       8.67000000       0.08000000        6 
C      1.43000000       8.67000000       0.08000000        6 
C      2.14000000       9.90000000       0.08000000        6 
C      3.57000000       9.90000000       0.07000000        6 
C      0.01000000      11.14000000       0.08000000        6 
C      1.43000000      11.14000000       0.08000000        6 
C      2.14000000       0.04000000       0.07000000        6 
C      3.57000000       0.04000000       0.07000000        6 
C      4.28000000       1.27000000       0.07000000        6 
C      5.70000000       1.27000000       0.06000000        6 
C      6.42000000       2.50000000       0.06000000        6 
C      7.84000000       2.50000000       0.06000000        6 
C      4.28000000       3.74000000       0.06000000        6 
C      5.70000000       3.74000000       0.06000000        6 
C      6.42000000       4.97000000       0.06000000        6 
C      7.84000000       4.97000000       0.06000000        6 
C      4.28000000       6.20000000       0.07000000        6 
C      5.70000000       6.20000000       0.06000000        6 
C      6.42000000       7.44000000       0.06000000        6 
C      7.84000000       7.44000000       0.07000000        6 
C      4.28000000       8.67000000       0.07000000        6 
C      5.70000000       8.67000000       0.07000000        6 
C      6.42000000       9.90000000       0.07000000        6 
C      7.84000000       9.90000000       0.07000000        6 
C      4.28000000      11.14000000       0.07000000        6 
C      5.70000000      11.14000000       0.07000000        6 
C      6.42000000       0.04000000       0.06000000        6 
C      7.84000000       0.04000000       0.06000000        6 
C      8.55000000       1.27000000       0.06000000        6 
C      9.98000000       1.27000000       0.07000000        6 
C     10.69000000       2.50000000       0.06000000        6 
C     12.11000000       2.50000000       0.07000000        6 
C      8.55000000       3.74000000       0.06000000        6 
C      9.98000000       3.74000000       0.06000000        6 
C     10.69000000       4.97000000       0.07000000        6 
C     12.11000000       4.97000000       0.07000000        6 
C      8.55000000       6.20000000       0.06000000        6 
C      9.98000000       6.20000000       0.07000000        6 
C     10.69000000       7.44000000       0.07000000        6 
C     12.11000000       7.44000000       0.07000000        6 
C      8.55000000       8.67000000       0.07000000        6 
C      9.98000000       8.67000000       0.07000000        6 
C     10.69000000       9.90000000       0.07000000        6 
C     12.11000000       9.90000000       0.08000000        6 
C      8.55000000      11.14000000       0.07000000        6 
C      9.98000000      11.14000000       0.07000000        6 
C     10.69000000       0.04000000       0.07000000        6 
C     12.11000000       0.04000000       0.07000000        6 
C      0.01000000      13.60200000       0.07000000        6 
C      1.43000000      13.60200000       0.07000000        6 
C      2.14000000      14.83200000       0.07000000        6 
C      3.57000000      14.83200000       0.06000000        6 
C      0.01000000      16.07200000       0.07000000        6 
C      1.43000000      16.07200000       0.07000000        6 
C      2.14000000      17.30200000       0.07000000        6 
C      3.57000000      17.30200000       0.07000000        6 
C      0.01000000      18.53200000       0.07000000        6 
C      1.43000000      18.53200000       0.07000000        6 
C      2.14000000      19.77200000       0.07000000        6 
C      3.57000000      19.77200000       0.07000000        6 
C      0.01000000      21.00200000       0.08000000        6 
C      1.43000000      21.00200000       0.08000000        6 
C      2.14000000      22.23200000       0.08000000        6 
C      3.57000000      22.23200000       0.07000000        6 
C      0.01000000      23.47200000       0.08000000        6 
C      1.43000000      23.47200000       0.08000000        6 
C      2.14000000      12.37200000       0.07000000        6 
C      3.57000000      12.37200000       0.07000000        6 
C      4.28000000      13.60200000       0.07000000        6 
C      5.70000000      13.60200000       0.06000000        6 
C      6.42000000      14.83200000       0.06000000        6 
C      7.84000000      14.83200000       0.06000000        6 
C      4.28000000      16.07200000       0.06000000        6 
C      5.70000000      16.07200000       0.06000000        6 
C      6.42000000      17.30200000       0.06000000        6 
C      7.84000000      17.30200000       0.06000000        6 
C      4.28000000      18.53200000       0.07000000        6 
C      5.70000000      18.53200000       0.06000000        6 
C      6.42000000      19.77200000       0.06000000        6 
C      7.84000000      19.77200000       0.07000000        6 
C      4.28000000      21.00200000       0.07000000        6 
C      5.70000000      21.00200000       0.07000000        6 
C      6.42000000      22.23200000       0.07000000        6 
C      7.84000000      22.23200000       0.07000000        6 
C      4.28000000      23.47200000       0.07000000        6 
C      5.70000000      23.47200000       0.07000000        6 
C      6.42000000      12.37200000       0.06000000        6 
C      7.84000000      12.37200000       0.06000000        6 
C      8.55000000      13.60200000       0.06000000        6 
C      9.98000000      13.60200000       0.07000000        6 
C     10.69000000      14.83200000       0.06000000        6 
C     12.11000000      14.83200000       0.07000000        6 
C      8.55000000      16.07200000       0.06000000        6 
C      9.98000000      16.07200000       0.06000000        6 
C     10.69000000      17.30200000       0.07000000        6 
C     12.11000000      17.30200000       0.07000000        6 
C      8.55000000      18.53200000       0.06000000        6 
C      9.98000000      18.53200000       0.07000000        6 
C     10.69000000      19.77200000       0.07000000        6 
C     12.11000000      19.77200000       0.07000000        6 
C      8.55000000      21.00200000       0.07000000        6 
C      9.98000000      21.00200000       0.07000000        6 
C     10.69000000      22.23200000       0.07000000        6 
C     12.11000000      22.23200000       0.08000000        6 
C      8.55000000      23.47200000       0.07000000        6 
C      9.98000000      23.47200000       0.07000000        6 
C     10.69000000      12.37200000       0.07000000        6 
C     12.11000000      12.37200000       0.07000000        6 
C     12.82600000       1.27000000       0.07000000        6 
C     14.24600000       1.27000000       0.07000000        6 
C     14.95600000       2.50000000       0.07000000        6 
C     16.38600000       2.50000000       0.06000000        6 
C     12.82600000       3.74000000       0.07000000        6 
C     14.24600000       3.74000000       0.07000000        6 
C     14.95600000       4.97000000       0.07000000        6 
C     16.38600000       4.97000000       0.07000000        6 
C     12.82600000       6.20000000       0.07000000        6 
C     14.24600000       6.20000000       0.07000000        6 
C     14.95600000       7.44000000       0.07000000        6 
C     16.38600000       7.44000000       0.07000000        6 
C     12.82600000       8.67000000       0.08000000        6 
C     14.24600000       8.67000000       0.08000000        6 
C     14.95600000       9.90000000       0.08000000        6 
C     16.38600000       9.90000000       0.07000000        6 
C     12.82600000      11.14000000       0.08000000        6 
C     14.24600000      11.14000000       0.08000000        6 
C     14.95600000       0.04000000       0.07000000        6 
C     16.38600000       0.04000000       0.07000000        6 
C     17.09600000       1.27000000       0.07000000        6 
C     18.51600000       1.27000000       0.06000000        6 
C     19.23600000       2.50000000       0.06000000        6 
C     20.65600000       2.50000000       0.06000000        6 
C     17.09600000       3.74000000       0.06000000        6 
C     18.51600000       3.74000000       0.06000000        6 
C     19.23600000       4.97000000       0.06000000        6 
C     20.65600000       4.97000000       0.06000000        6 
C     17.09600000       6.20000000       0.07000000        6 
C     18.51600000       6.20000000       0.06000000        6 
C     19.23600000       7.44000000       0.06000000        6 
C     20.65600000       7.44000000       0.07000000        6 
C     17.09600000       8.67000000       0.07000000        6 
C     18.51600000       8.67000000       0.07000000        6 
C     19.23600000       9.90000000       0.07000000        6 
C     20.65600000       9.90000000       0.07000000        6 
C     17.09600000      11.14000000       0.07000000        6 
C     18.51600000      11.14000000       0.07000000        6 
C     19.23600000       0.04000000       0.06000000        6 
C     20.65600000       0.04000000       0.06000000        6 
C     21.36600000       1.27000000       0.06000000        6 
C     22.79600000       1.27000000       0.07000000        6 
C     23.50600000       2.50000000       0.06000000        6 
C     24.92600000       2.50000000       0.07000000        6 
C     21.36600000       3.74000000       0.06000000        6 
C     22.79600000       3.74000000       0.06000000        6 
C     23.50600000       4.97000000       0.07000000        6 
C     24.92600000       4.97000000       0.07000000        6 
C     21.36600000       6.20000000       0.06000000        6 
C     22.79600000       6.20000000       0.07000000        6 
C     23.50600000       7.44000000       0.07000000        6 
C     24.92600000       7.44000000       0.07000000        6 
C     21.36600000       8.67000000       0.07000000        6 
C     22.79600000       8.67000000       0.07000000        6 
C     23.50600000       9.90000000       0.07000000        6 
C     24.92600000       9.90000000       0.08000000        6 
C     21.36600000      11.14000000       0.07000000        6 
C     22.79600000      11.14000000       0.07000000        6 
C     23.50600000       0.04000000       0.07000000        6 
C     24.92600000       0.04000000       0.07000000        6 
C     12.82600000      13.60200000       0.07000000        6 
C     14.24600000      13.60200000       0.07000000        6 
C     14.95600000      14.83200000       0.07000000        6 
C     16.38600000      14.83200000       0.06000000        6 
C     12.82600000      16.07200000       0.07000000        6 
C     14.24600000      16.07200000       0.07000000        6 
C     14.95600000      17.30200000       0.07000000        6 
C     16.38600000      17.30200000       0.07000000        6 
C     12.82600000      18.53200000       0.07000000        6 
C     14.24600000      18.53200000       0.07000000        6 
C     14.95600000      19.77200000       0.07000000        6 
C     16.38600000      19.77200000       0.07000000        6 
C     12.82600000      21.00200000       0.08000000        6 
C     14.24600000      21.00200000       0.08000000        6 
C     14.95600000      22.23200000       0.08000000        6 
C     16.38600000      22.23200000       0.07000000        6 
C     12.82600000      23.47200000       0.08000000        6 
C     14.24600000      23.47200000       0.08000000        6 
C     14.95600000      12.37200000       0.07000000        6 
C     16.38600000      12.37200000       0.07000000        6 
C     17.09600000      13.60200000       0.07000000        6 
C     18.51600000      13.60200000       0.06000000        6 
C     19.23600000      14.83200000       0.06000000        6 
C     20.65600000      14.83200000       0.06000000        6 
C     17.09600000      16.07200000       0.06000000        6 
C     18.51600000      16.07200000       0.06000000        6 
C     19.23600000      17.30200000       0.06000000        6 
C     20.65600000      17.30200000       0.06000000        6 
C     17.09600000      18.53200000       0.07000000        6 
C     18.51600000      18.53200000       0.06000000        6 
C     19.23600000      19.77200000       0.06000000        6 
C     20.65600000      19.77200000       0.07000000        6 
C     17.09600000      21.00200000       0.07000000        6 
C     18.51600000      21.00200000       0.07000000        6 
C     19.23600000      22.23200000       0.07000000        6 
C     20.65600000      22.23200000       0.07000000        6 
C     17.09600000      23.47200000       0.07000000        6 
C     18.51600000      23.47200000       0.07000000        6 
C     19.23600000      12.37200000       0.06000000        6 
C     20.65600000      12.37200000       0.06000000        6 
C     21.36600000      13.60200000       0.06000000        6 
C     22.79600000      13.60200000       0.07000000        6 
C     23.50600000      14.83200000       0.06000000        6 
C     24.92600000      14.83200000       0.07000000        6 
C     21.36600000      16.07200000       0.06000000        6 
C     22.79600000      16.07200000       0.06000000        6 
C     23.50600000      17.30200000       0.07000000        6 
C     24.92600000      17.30200000       0.07000000        6 
C     21.36600000      18.53200000       0.06000000        6 
C     22.79600000      18.53200000       0.07000000        6 
C     23.50600000      19.77200000       0.07000000        6 
C     24.92600000      19.77200000       0.07000000        6 
C     21.36600000      21.00200000       0.07000000        6 
C     22.79600000      21.00200000       0.07000000        6 
C     23.50600000      22.23200000       0.07000000        6 
C     24.92600000      22.23200000       0.08000000        6 
C     21.36600000      23.47200000       0.07000000        6 
C     22.79600000      23.47200000       0.07000000        6 
C     23.50600000      12.37200000       0.07000000        6 
C     24.92600000      12.37200000       0.07000000        6 
O    259.89240850     103.45667666       9.18615493        8 
H    260.45453011     103.62685310       8.37679753        1 
H    259.30366086     104.24709592       9.35531066        1 
O    251.44388664      90.64815540      19.10378076        8 
H    251.54523886      90.75634126      18.11483004        1 
H    250.49147624      90.43300231      19.31970565        1 
O    216.51560642     173.61480447      14.37984493        8 
H    217.33382725     173.52979741      13.81126030        1 
H    216.71040464     173.26982076      15.29801697        1 
O    297.73616709      93.11055444      12.70505435        8 
H    298.22909846      93.95946660      12.89575513        1 
H    298.24890847      92.33665060      13.07676566        1 
O    224.27247023     170.53684230      11.22589970        8 
H    225.03160729     169.98575436      10.87947062        1 
H    223.64367436     169.95282915      11.73926548        1 
O    212.37848793     100.56049198       9.87443232        8 
H    212.74169231     100.01354617      10.62870868        1 
H    211.37982577     100.50880127       9.87589330        1 
O    262.98146543     145.47891024       5.26396629        8 
H    263.51890329     145.36839557       6.09999681        1 
H    262.49343617     144.62869478       5.06658069        1 
O    231.69908005      51.41716005       3.62701514        8 
H    232.61579324      51.03016255       3.52766792        1 
H    231.01761197      50.69548151       3.50543659        1 
O    149.71640941     167.21255600       7.98497804        8 
H    150.35984116     167.84090413       7.54774331        1 
H    148.81759890     167.64633023       8.04806203        1 
O    316.88613185     169.13499952      11.31996552        8 
H    316.58813823     168.32186799      11.81998245        1 
H    316.67826558     169.95193736      11.85792850        1 
O    219.52417422     142.97013034       3.82982830        8 
H    220.07613702     142.29706765       3.33756445        1 
H    219.13508736     142.54761421       4.64841948        1 
O    169.45933711     139.99651990       6.07151820        8 
H    168.76583573     140.67180022       6.32262010        1 
H    169.95104037     139.70300912       6.89132262        1 
O    220.43847731      52.89077631      20.85505329        8 
H    220.01720195      52.02114819      21.11249066        1 
H    219.72399567      53.55643711      20.63961967        1 
O    258.98003558       9.76553088       9.66165001        8 
H    258.21425250      10.31003054      10.00384356        1 
H    258.77649649       8.79348992       9.77873205        1 
O    168.47224878     268.48489619      12.19829626        8 
H    167.53354112     268.17819091      12.04094377        1 
H    168.94861892     268.56306791      11.32253335        1 
O    241.72894007     180.68308281      11.12920920        8 
H    241.57646189     179.94917440      10.46729618        1 
H    241.61951027     180.32405849      12.05610006        1 
O    204.96297679     156.72841874      16.83310453        8 
H    204.75474438     155.87707984      16.35158467        1 
H    205.92319982     156.72717275      17.11233631        1 
O    234.00508551     118.87547120       6.98108331        8 
H    233.92524256     117.87989527       7.03061785        1 
H    234.75085622     119.17996962       7.57362594        1 
O    193.78503885     127.30493771       4.89809662        8 
H    193.36376263     127.85361626       4.17596215        1 
H    193.81367604     126.34636887       4.61467874        1 
O    250.66163350     130.97573723      11.23879163        8 
H    251.00579155     130.98526166      10.29992814        1 
H    249.75571299     131.39830706      11.26604729        1 
O    149.44341688      35.38649152      15.36941259        8 
H    150.33396609      34.99010526      15.14625332        1 
H    148.99237587      34.82399704      16.06234979        1 
O    231.92141165      85.71462029      19.39720357        8 
H    231.45405384      84.86383692      19.15690294        1 
H    232.67229188      85.87491174      18.75651222        1 
O    203.15055162      69.64436915      14.20440340        8 
H    202.20353216      69.93318584      14.06390766        1 
H    203.76451733      70.26796517      13.72048804        1 
O    270.27638725      82.97934942      10.91623595        8 
H    270.26497136      83.72000839      11.58802013        1 
H    269.42935235      82.45247967      10.98652132        1 
O    235.43064764     166.19250843      10.24573754        8 
H    234.53185632     165.76153889      10.16549161        1 
H    235.34266532     167.17733041      10.09612206        1 
O    299.62237763     121.82599983       6.22871594        8 
H    299.12192506     121.12200694       6.73264175        1 
H    299.45278376     122.71879180       6.64604125        1 
O    133.26272612     140.52177160      17.30504951        8 
H    133.44063462     139.90830855      16.53562657        1 
H    132.73471749     140.03725371      18.00250869        1 
O    202.64638393     142.28915487      10.41627549        8 
H    203.59217906     142.02003401      10.59805983        1 
H    202.30171166     141.78263141       9.62593695        1 
O    228.99341547     119.68696798      19.84111133        8 
H    229.30537226     120.09083552      20.70109625        1 
H    229.73466265     119.15182742      19.43592337        1 
O    167.08944457      91.97172030       6.48993034        8 
H    166.31919380      92.44267255       6.05990971        1 
H    166.87677381      91.79328045       7.45062299        1 
O    197.12993746      66.70452880      16.86361306        8 
H    197.67381398      67.01706185      16.08481821        1 
H    196.22634797      67.13176483      16.83206274        1 
O    205.25191026     109.92207356       6.02181393        8 
H    206.06911923     110.36529800       6.39021802        1 
H    205.13072501     110.18826721       5.06554247        1 
O    247.73104326     143.48290940      16.80630809        8 
H    248.18193740     144.23351922      16.32331805        1 
H    248.24290605     143.26624126      17.63760315        1 
O     95.32899833      85.63358709       5.62782144        8 
H     96.05144870      85.39946028       6.27839814        1 
H     95.32137873      86.62254199       5.47980069        1 
O    160.82302886     112.19601611      10.96188364        8 
H    160.74409197     111.24819250      11.27075143        1 
H    161.77593263     112.39328869      10.73154034        1 
O    157.38939312     100.69446293      16.66516982        8 
H    157.28869020      99.77696240      16.28039483        1 
H    157.10230525     100.68758217      17.62304942        1 
O    197.75555074     112.91672485      16.82379836        8 
H    198.15442162     112.38096345      17.56801729        1 
H    198.46285613     113.48896247      16.40875228        1 
O    307.80419312      -1.46808771      14.46192365        8 
H    307.65111352      -1.87870541      15.36078956        1 
H    307.01557166      -0.90551083      14.21376395        1 
O    257.76687448     120.75172318      10.12437629        8 
H    257.71604852     120.32459889      11.02713958        1 
H    256.92151082     120.57058802       9.62183243        1 
O    123.10121462     111.70351339      21.59087988        8 
H    123.80168889     111.02259665      21.37713206        1 
H    122.24280816     111.44999059      21.14493761        1 
O    272.17209371     123.27535136      15.52710261        8 
H    272.19790260     122.87952148      16.44506367        1 
H    272.15834071     124.27298033      15.59453665        1 
O    220.47315702     101.56897532      15.69291697        8 
H    219.71185153     102.03471990      16.14402222        1 
H    220.92910325     102.20325638      15.06857686        1 
O    221.61759110     201.29099960      10.95620475        8 
H    221.42371221     202.26320202      10.82492914        1 
H    221.83256616     200.87188340      10.07408958        1 
O    246.88226209     100.59534215       9.13012895        8 
H    245.94069282     100.69137914       9.45296671        1 
H    247.43986302     100.17834187       9.84789770        1 
O    173.51055599     100.85904074      15.87239862        8 
H    173.74041055     100.69019043      16.83086430        1 
H    174.07213724     101.60859629      15.52198036        1 
O    200.89160901      91.46406274       3.64906993        8 
H    200.34600829      91.16446479       2.86640713        1 
H    200.28395051      91.78147842       4.37707974        1 
O    292.56271959     152.26379444      12.08663464        8 
H    293.43449675     152.38621867      11.61227537        1 
H    292.34145632     153.09469777      12.59716574        1 
O    209.56073665     134.09819833       7.59547859        8 
H    209.01777213     133.75275694       8.36089345        1 
H    209.30529153     133.61244798       6.75953931        1 
O    241.89920302     159.90585957      27.90562573        8 
H    241.54303654     160.33683578      28.73472460        1 
H    242.89158385     160.02342528      27.86876675        1 
O    274.75599036      78.29518407       3.64208935        8 
H    275.55678498      78.54583542       3.09812061        1 
H    274.03732931      78.97820035       3.51164703        1 
O    304.29656011     111.76764595      17.52023332        8 
H    304.24935540     111.01260798      16.86625351        1 
H    304.98095672     112.43011606      17.21570940        1 
O    203.86316788     229.14539990       4.48843726        8 
H    204.39405334     229.48704733       5.26396137        1 
H    204.33874243     228.36885574       4.07514799        1 
O    287.73258298      69.14966519      15.96781547        8 
H    286.87755332      69.64627152      16.11716884        1 
H    287.75545458      68.34100868      16.55565180        1 
O    172.44316852     180.80644480       4.13407658        8 
H    173.38214889     180.46247534       4.13495160        1 
H    172.38493889     181.61807728       4.71533545        1 
O    249.36067104     145.34935377      18.97038812        8 
H    248.91224118     145.54723314      19.84202704        1 
H    249.36129449     144.36190574      18.81244504        1 
O    160.82638363     146.72488773      17.65584031        8 
H    160.22002576     147.04357068      16.92729964        1 
H    160.30994813     146.15266955      18.29291242        1 
O    357.94874153     172.66126149       4.03339259        8 
H    356.97750194     172.42546765       4.06648241        1 
H    358.45229999     172.09200975       4.68330130        1 
O    298.32192435     171.74819709       3.23860895        8 
H    297.37433495     172.04935220       3.34528562        1 
H    298.85812521     172.04912410       4.02723535        1 
O    244.64010264     122.76144817       5.89696159        8 
H    243.68586791     122.46470786       5.93412470        1 
H    245.16421996     122.28804855       6.60491195        1 
O    208.56224300      64.60066181       9.15472526        8 
H    208.05054883      64.82699257       8.32590473        1 
H    209.50850291      64.38491152       8.91380204        1 
O    173.45966781      95.20197727       7.86865912        8 
H    173.75458852      95.89608580       7.21197417        1 
H    172.53561628      94.89669113       7.63859575        1 
O    204.10039748     169.61472036       8.83832862        8 
H    203.94395468     169.59977706       7.85075461        1 
H    203.65278469     170.41632873       9.23464488        1 
O    218.03067134     110.38437496      25.63642553        8 
H    217.76900259     109.47600554      25.96260715        1 
H    218.10552567     111.00892961      26.41381109        1 
O    230.81306967     298.11790653       6.46880008        8 
H    231.01478423     299.06557738       6.71624949        1 
H    231.07417011     297.95920512       5.51662340        1 
O    289.33233032     156.80237266      19.34596791        8 
H    289.74970189     156.65349672      18.44950987        1 
H    289.88276974     157.45585417      19.86556234        1 
O    210.02717390      94.98791781       8.90590204        8 
H    211.00541828      95.18863024       8.95836610        1 
H    209.51284132      95.84454116       8.86517988        1 
O    177.95239010      82.48179313       9.16508471        8 
H    177.37470865      81.67973805       9.01345482        1 
H    177.73853354      82.88305855      10.05573130        1 
O    331.44502602      76.80178578      17.11679822        8 
H    330.81848217      76.40574465      17.78806142        1 
H    330.93528572      77.39698623      16.49558854        1 
O    221.99484397      45.93547353       8.42613570        8 
H    221.42545361      46.54842005       8.97394149        1 
H    222.01643196      45.03099177       8.85210133        1 
O    286.98203611     159.90803742      15.40427259        8 
H    286.78027923     159.13653258      14.80088678        1 
H    286.90827450     160.76210267      14.88936313        1 
O    293.04991593     109.42035374      15.78872129        8 
H    292.44344526     109.13593873      15.04622455        1 
H    293.27474593     108.62895685      16.35717747        1 
O    201.43486110     105.34657673      17.19113093        8 
H    202.32406008     105.21680066      17.62986014        1 
H    200.70710061     105.15473856      17.84958580        1 
O    284.84431308     160.28681170      16.92763389        8 
H    284.32075850     161.13734835      16.87785420        1 
H    285.62092404     160.33618045      16.29959079        1 
O    202.86295186     209.46121984      19.96175036        8 
H    203.53173724     210.17427815      20.17216415        1 
H    202.28635799     209.75903550      19.20093140        1 
O    221.19586853      78.07684561       6.95792325        8 
H    220.98700481      77.28762496       7.53542365        1 
H    220.67621455      78.01329586       6.10591316        1 
O    179.74559018      54.35167924       6.87408558        8 
H    179.67556296      55.29210358       7.20679904        1 
H    180.69407527      54.15599860       6.62491657        1 
O    100.13423603     200.53137783      12.22254209        8 
H    100.65141977     199.82499405      12.70580486        1 
H    100.39458389     201.43198930      12.57056210        1 
O    179.39454777     116.64439970      10.99577867        8 
H    180.25051878     116.14117193      10.87713869        1 
H    179.51263032     117.34077364      11.70367686        1 
O    290.28926935     106.14133058       5.56246316        8 
H    289.79824996     105.43724760       5.04946499        1 
H    290.35023191     105.87198922       6.52357647        1 
O    171.82087614     110.13242047      20.40609941        8 
H    172.03470727     109.57521446      21.20846942        1 
H    170.82860121     110.20518319      20.30562026        1 
O    198.38621965     167.35734327      18.74722103        8 