#     Step Nr.          Time[fs]        Kin.[a.u.]          Temp[K]            Pot.[a.u.]        Cons Qty[a.u.]        UsedTime[s]
         0            0.000000         2.052096342       300.000000000     -8501.827341265     -8499.774769901         0.000000000
         1            1.000000         2.036853233       297.771579812     -8501.812113478     -8499.774163500       366.314373719
         2            2.000000         1.967765655       287.671530988     -8501.739672992     -8499.770205888        24.668130956
         3            3.000000         1.908398766       278.992568634     -8501.675364254     -8499.764694337        24.225821076
         4            4.000000         1.933564065       282.671533203     -8501.700694452     -8499.764319552        24.364796122
         5            5.000000         2.044488743       298.887830066     -8501.818885744     -8499.771048246        21.935195006
         6            6.000000         2.149786182       314.281469753     -8501.931385039     -8499.777684419        22.109156386
         7            7.000000         2.157892996       315.466620892     -8501.940074732     -8499.777668323        22.023062726
         8            8.000000         2.067138771       302.199082161     -8501.844035269     -8499.771776341        21.751163720
         9            9.000000         1.958880785       286.372634372     -8501.730534825     -8499.765952976        21.880835413
        10           10.000000         1.916648457       280.198607246     -8501.687768359     -8499.764875576        22.174129193
        11           11.000000         1.960089293       286.549308524     -8501.734623499     -8499.767770020        21.921050795
        12           12.000000         2.049092107       299.560804893     -8501.827857665     -8499.771480481        21.801809561
        13           13.000000         2.126100454       310.818806632     -8501.908076967     -8499.774149666        22.221616102
        14           14.000000         2.149613471       314.256220837     -8501.932563232     -8499.774553923        21.819665551
        15           15.000000         2.116640449       309.435829798     -8501.897070547     -8499.771447604        21.677356571
        16           16.000000         2.074166280       303.226447542     -8501.850327631     -8499.766589436        21.943868808
        17           17.000000         2.087461968       305.170170394     -8501.863082212     -8499.765456892        21.732843331
        18           18.000000         2.169662488       317.187226021     -8501.950427259     -8499.769986997        21.872377409
        19           19.000000         2.259696482       330.349472641     -8502.046326879     -8499.775187417        21.939504053
        20           20.000000         2.285833955       334.170561239     -8502.074129595     -8499.776125644        22.081030624
        21           21.000000         2.233584609       326.532126667     -8502.019406711     -8499.772879882        21.865300671
        22           22.000000         2.148589073       314.106462090     -8501.931141876     -8499.768823691        22.264094019
        23           23.000000         2.090039039       305.546917364     -8501.871578872     -8499.767028672        22.508263352
        24           24.000000         2.085271268       304.849907642     -8501.868720727     -8499.768158602        21.842065261
        25           25.000000         2.118662920       309.731498872     -8501.905474995     -8499.770728223        21.979110289
        26           26.000000         2.151354659       314.510768563     -8501.941192632     -8499.772934697        21.723764838
        27           27.000000         2.150610286       314.401947196     -8501.941405865     -8499.773046777        21.831473880
        28           28.000000         2.115858155       309.321464724     -8501.904961898     -8499.770496813        22.160100612
        29           29.000000         2.082179630       304.397934962     -8501.869523147     -8499.767879182        21.956392054
        30           30.000000         2.084522047       304.740377588     -8501.873048139     -8499.768203825        22.000982362
        31           31.000000         2.119613124       309.870411053     -8501.911570393     -8499.770762049        21.891079568
        32           32.000000         2.153091494       314.764679866     -8501.948020596     -8499.772832936        22.227341891
        33           33.000000         2.155327667       315.091590347     -8501.951394231     -8499.773041935        22.037447606
        34           34.000000         2.122915977       310.353261673     -8501.918592271     -8499.771709591        21.772642508
        35           35.000000         2.076230924       303.528282003     -8501.870929698     -8499.769793852        21.904212337
        36           36.000000         2.044027445       298.820391991     -8501.838454405     -8499.768596888        22.143925343
        37           37.000000         2.042996039       298.669608724     -8501.838889783     -8499.769147594        21.948903644
        38           38.000000         2.064983506       301.883999781     -8501.863481468     -8499.770833176        21.822680701
        39           39.000000         2.086297978       305.000004381     -8501.886749233     -8499.771856566        22.248474565
        40           40.000000         2.092438034       305.897631165     -8501.893119928     -8499.771145717        22.586679982
        41           41.000000         2.092159680       305.856938116     -8501.892341173     -8499.769695711        24.648262098
        42           42.000000         2.104056613       307.596174120     -8501.904896603     -8499.769394860        23.773330704
        43           43.000000         2.132228612       311.714694144     -8501.935212503     -8499.770560646        23.967726910
        44           44.000000         2.161366582       315.974431268     -8501.966597163     -8499.771800920        23.932188664
        45           45.000000         2.174235386       317.855746964     -8501.980777616     -8499.772075599        24.208859270
        46           46.000000         2.166454141       316.718191442     -8501.973574301     -8499.771592220        23.779247697
        47           47.000000         2.145381905       313.637599815     -8501.952907695     -8499.770922282        23.733739070
        48           48.000000         2.122332874       310.268016730     -8501.930269645     -8499.770251913        23.657252538
        49           49.000000         2.107474014       308.095770715     -8501.916233037     -8499.769990501        24.565907904
        50           50.000000         2.103358739       307.494150613     -8501.913883985     -8499.770669281        23.633977359
        51           51.000000         2.100202744       307.032769383     -8501.912701648     -8499.771550095        24.085164975
        52           52.000000         2.087092815       305.116203175     -8501.900275090     -8499.771138769        23.882100077
        53           53.000000         2.070254675       302.654602276     -8501.882899216     -8499.769510875        24.068835553
        54           54.000000         2.070453797       302.683712355     -8501.883416333     -8499.768742905        23.863637086
        55           55.000000         2.096836073       306.540589140     -8501.912058689     -8499.769909844        24.074542775
        56           56.000000         2.133283842       311.868960251     -8501.951356657     -8499.771645432        23.858841850
        57           57.000000         2.155177625       315.069655396     -8501.975102815     -8499.772356101        24.247219005
        58           58.000000         2.151704783       314.561953840     -8501.972213042     -8499.771776823        23.872021905
        59           59.000000         2.131169900       311.559918826     -8501.951718991     -8499.770646997        24.186770657
        60           60.000000         2.110317707       308.511495739     -8501.931366845     -8499.769977197        23.837597152
        61           61.000000         2.100212171       307.034147569     -8501.922525468     -8499.770073960        23.862844645
        62           62.000000         2.100404995       307.062336993     -8501.924507255     -8499.770694624        24.004824650
        63           63.000000         2.101919708       307.283775832     -8501.927838597     -8499.771339357        23.864065088
        64           64.000000         2.095785989       306.387075354     -8501.922740943     -8499.771201957        23.631250678
        65           65.000000         2.083909388       304.650811700     -8501.911029543     -8499.770197421        23.882778825
        66           66.000000         2.079503687       304.006733584     -8501.906927906     -8499.769337410        23.955823185
        67           67.000000         2.093672538       306.078105731     -8501.922417415     -8499.769493308        23.544004457
        68           68.000000         2.123819553       310.485357138     -8501.954742284     -8499.770493573        23.884945993
        69           69.000000         2.155276134       315.084056645     -8501.988477486     -8499.771571401        24.104784785
        70           70.000000         2.171894500       317.513528240     -8502.006837011     -8499.772086444        23.958125900
        71           71.000000         2.166640578       316.745447035     -8502.002395780     -8499.771655107        23.903645124
        72           72.000000         2.146605886       313.816535975     -8501.982501931     -8499.770545986        23.853173838
        73           73.000000         2.127607049       311.039058652     -8501.964052984     -8499.769848401        24.022593761
        74           74.000000         2.120160774       309.950473138     -8501.958101238     -8499.770098542        23.929483922
        75           75.000000         2.121630005       310.165262925     -8501.961585033     -8499.770867908        23.924286675
        76           76.000000         2.121432608       310.136405091     -8501.963178613     -8499.771411181        23.801774487
        77           77.000000         2.111935473       308.748000147     -8501.954632774     -8499.771116188        23.818555666
        78           78.000000         2.096917238       306.552454806     -8501.939930560     -8499.770194000        23.782344161
        79           79.000000         2.088027650       305.252868449     -8501.931749729     -8499.769675621        24.152546393
        80           80.000000         2.092573674       305.917460667     -8501.937659948     -8499.769820000        25.149024846
        81           81.000000         2.108741352       308.281045350     -8501.955449504     -8499.770221576        23.976248245
        82           82.000000         2.129885394       311.372134366     -8501.978307493     -8499.770707210        23.819385157
        83           83.000000         2.148219981       314.052503710     -8501.998340387     -8499.771164840        24.052797616
        84           84.000000         2.157696175       315.437847182     -8502.009055915     -8499.771151305        23.735586722
        85           85.000000         2.159074221       315.639306412     -8502.011207552     -8499.770663248        23.932516280
        86           86.000000         2.158704150       315.585205029     -8502.011915746     -8499.770474033        30.431603300
        87           87.000000         2.159327738       315.676368562     -8502.014142466     -8499.770804629        24.592377426
        88           88.000000         2.157202398       315.365661007     -8502.013581644     -8499.771092596        23.781655401
        89           89.000000         2.148655690       314.116200856     -8502.006157985     -8499.770938902        25.378663601
        90           90.000000         2.135878655       312.248301030     -8501.994089653     -8499.770376106        23.978814142
        91           91.000000         2.126193271       310.832375636     -8501.985267424     -8499.769976317        23.902858208
        92           92.000000         2.124562268       310.593936156     -8501.985086571     -8499.770171087        23.775887158
        93           93.000000         2.128311450       311.142036390     -8501.990459501     -8499.770543870        23.640973965
        94           94.000000         2.132606237       311.769899855     -8501.995960110     -8499.770501169        23.778540643
        95           95.000000         2.137494051       312.484458998     -8502.001871699     -8499.770278068        23.708574540
        96           96.000000         2.145334077       313.630607747     -8502.011126698     -8499.770446134        24.322993640
        97           97.000000         2.154234046       314.931711720     -8502.021725201     -8499.770895422        23.652618096
        98           98.000000         2.159215832       315.660008875     -8502.028067314     -8499.771003722        23.762870368
        99           99.000000         2.158660496       315.578823205     -8502.028604130     -8499.770843276        23.669578298
       100          100.000000         2.154016654       314.899930775     -8502.025265791     -8499.770898943        24.337885097
       101          101.000000         2.144640613       313.529228984     -8502.017321815     -8499.771087907        24.948096290
       102          102.000000         2.128855476       311.221568704     -8502.002527693     -8499.770848142        23.653251324
       103          103.000000         2.110350109       308.516232664     -8501.984586725     -8499.770200125        23.885379995
       104          104.000000         2.097532747       306.642437382     -8501.972603109     -8499.769842647        23.802111825
       105          105.000000         2.094275353       306.166232501     -8501.970918820     -8499.770243934        23.976446355
       106          106.000000         2.094833371       306.247810270     -8501.973271615     -8499.770883371        23.744835539
       107          107.000000         2.091145362       305.708652947     -8501.970637068     -8499.770798198        23.877597810
       108          108.000000         2.084935360       304.800800610     -8501.964673089     -8499.769924795        23.874902469
       109          109.000000         2.087706011       305.205847403     -8501.968099672     -8499.769479667        24.077519238
       110          110.000000         2.104479756       307.658034253     -8501.986864340     -8499.770381134        24.184551674
       111          111.000000         2.123279049       310.406339896     -8502.007943780     -8499.771576265        24.495595695
       112          112.000000         2.127839685       311.073068270     -8502.013792939     -8499.771784058        24.473938791
       113          113.000000         2.114202501       309.079421411     -8502.000581210     -8499.771140544        23.805464130
       114          114.000000         2.090895882       305.672180985     -8501.977538223     -8499.770356453        24.118814616
       115          115.000000         2.069690913       302.572184844     -8501.956872641     -8499.769875340        24.635945715
       116          116.000000         2.058180482       300.889452259     -8501.946334066     -8499.769854578        24.226175448
       117          117.000000         2.056476891       300.640401013     -8501.946001249     -8499.770257682        23.929149276
       118          118.000000         2.058779738       300.977058774     -8501.949666385     -8499.770674031        23.668616593
       119          119.000000         2.059024997       301.012913665     -8501.950931256     -8499.770768286        23.731203246
       120          120.000000         2.056190804       300.598577438     -8501.948632288     -8499.770399454        24.160460294
       121          121.000000         2.056685365       300.670878232     -8501.949307136     -8499.769696895        23.720010534
       122          122.000000         2.070398650       302.675650317     -8501.963762928     -8499.769573488        23.807009548
       123          123.000000         2.098258348       306.748514326     -8501.993485949     -8499.770579120        23.860087380
       124          124.000000         2.126510676       310.878777749     -8502.023811142     -8499.771794186        24.111311502
       125          125.000000         2.138214185       312.589736736     -8502.036735043     -8499.772154570        24.280627337
       126          126.000000         2.127661054       311.046953724     -8502.026440034     -8499.771555960        24.127935122
       127          127.000000         2.102853132       307.420234859     -8502.001580434     -8499.770659971        23.742211642
       128          128.000000         2.076980020       303.637793714     -8501.975880641     -8499.770008852        23.960279627
       129          129.000000         2.059648214       301.104022890     -8501.959219949     -8499.769878346        24.383262489
       130          130.000000         2.052426399       300.048251686     -8501.953280011     -8499.770380568        23.813222995
       131          131.000000         2.048307509       299.446103031     -8501.950603296     -8499.771063507        24.463102571
       132          132.000000         2.038461968       298.006764040     -8501.941585849     -8499.771153656        24.401789154
       133          133.000000         2.022563325       295.682510097     -8501.925649784     -8499.770402922        23.938510608
       134          134.000000         2.011129638       294.010996934     -8501.914196211     -8499.769696648        23.755239790
       135          135.000000         2.013392102       294.341751009     -8501.917404921     -8499.769981513        23.846714140
       136          136.000000         2.026195182       296.213458386     -8501.931553590     -8499.770685737        24.136393753
       137          137.000000         2.039447585       298.150853269     -8501.945896513     -8499.771150460        23.914492306
       138          138.000000         2.045608673       299.051554903     -8501.952783510     -8499.771264365        20.691112095
       139          139.000000         2.042662286       298.620816753     -8501.950250186     -8499.771080055        23.871089442
       140          140.000000         2.032861524       297.188024104     -8501.940902137     -8499.770952362        24.025957570
       141          141.000000         2.018644738       295.109644218     -8501.927085862     -8499.770792280        23.905203849
       142          142.000000         2.002811658       292.794975070     -8501.911464620     -8499.770466137        24.115121943
       143          143.000000         1.989947748       290.914374685     -8501.898929985     -8499.770281991        24.010712074
       144          144.000000         1.982586468       289.838214734     -8501.892236378     -8499.770461275        24.693109430
       145          145.000000         1.979034866       289.318999107     -8501.889278722     -8499.770591372        23.845665250
       146          146.000000         1.978819428       289.287503775     -8501.889145127     -8499.770233049        23.697899364
       147          147.000000         1.986574030       290.421164234     -8501.897120552     -8499.770035471        24.310145742
       148          148.000000         2.004700837       293.071157855     -8501.916056411     -8499.770443994        22.103878222
       149          149.000000         2.028175396       296.502949738     -8501.940358131     -8499.770883302        23.937846744
       150          150.000000         2.051196161       299.868400651     -8501.963795476     -8499.770919652        23.740124159
       151          151.000000         2.072703579       303.012612393     -8501.985462985     -8499.770702661        24.085967089
       152          152.000000         2.094677797       306.225066638     -8502.007874391     -8499.770761518        24.080762787
       153          153.000000         2.115547233       309.276010494     -8502.029712779     -8499.771346386        25.518427593
       154          154.000000         2.127476974       311.020042726     -8502.042487339     -8499.771798071        24.116641160
       155          155.000000         2.124973026       310.653985741     -8502.039983894     -8499.771396154        24.081489364
       156          156.000000         2.113522594       308.980024554     -8502.028150157     -8499.770603735        24.102476848
       157          157.000000         2.103674645       307.540333428     -8502.018512019     -8499.770400558        24.224696794
       158          158.000000         2.099251705       306.893735142     -8502.014802328     -8499.770698156        24.037493538
       159          159.000000         2.097358366       306.616944282     -8502.013456919     -8499.770827892        23.827942582
       160          160.000000         2.095955192       306.411811433     -8502.012439436     -8499.770792893        23.991618189
       161          161.000000         2.094992932       306.271136843     -8502.011966667     -8499.770859287        24.125027539
       162          162.000000         2.093999224       306.125864714     -8502.011390405     -8499.770851290        23.777258598
       163          163.000000         2.093916363       306.113751074     -8502.011428365     -8499.770544303        23.951167742
       164          164.000000         2.099018786       306.859684374     -8502.016682042     -8499.770264557        24.266215852
       165          165.000000         2.112052974       308.765177910     -8502.030544620     -8499.770656169        24.364762437
       166          166.000000         2.126530988       310.881747263     -8502.046435951     -8499.771623316        24.211892110
       167          167.000000         2.129509862       311.317234600     -8502.050282438     -8499.772033657        24.058047045
       168          168.000000         2.116006017       309.343081000     -8502.036496854     -8499.771286028        21.051204145
       169          169.000000         2.096376836       306.473452463     -8502.016270354     -8499.770219247        23.729723002
       170          170.000000         2.085370897       304.864472565     -8502.005588880     -8499.770074052        24.072264461
       171          171.000000         2.085763800       304.921911895     -8502.007224668     -8499.770846923        23.945067612
       172          172.000000         2.087876130       305.230717543     -8502.010446536     -8499.771484664        24.078261706
       173          173.000000         2.083236452       304.552433836     -8502.006106353     -8499.771310820        24.303953406
       174          174.000000         2.073987413       303.200298709     -8501.996633394     -8499.770614083        23.981779509
       175          175.000000         2.069828706       302.592329078     -8501.992383559     -8499.770052109        24.285512144
       176          176.000000         2.079105284       303.948490260     -8502.002097883     -8499.770019365        24.274359638
       177          177.000000         2.102249886       307.332045224     -8502.026299810     -8499.770601437        23.972151097
       178          178.000000         2.129984882       311.386678823     -8502.055584575     -8499.771664437        24.318599981
       179          179.000000         2.146503760       313.801606087     -8502.073464390     -8499.772522324        24.063079749
       180          180.000000         2.140243659       312.886429563     -8502.067384841     -8499.772184269        24.267263684
       181          181.000000         2.116558509       309.423850872     -8502.042775504     -8499.770732007        24.115109039
       182          182.000000         2.095724207       306.378043380     -8502.021290971     -8499.769550571        23.875474031
       183          183.000000         2.093845540       306.103397256     -8502.020336040     -8499.769941147        23.905113425
       184          184.000000         2.105567232       307.817014444     -8502.034236183     -8499.771580800        23.991134166
       185          185.000000         2.109206773       308.349086125     -8502.039465102     -8499.772623096        24.270344966
       186          186.000000         2.090907375       305.673861176     -8502.021051323     -8499.771956803        23.958723905
       187          187.000000         2.059847534       301.133161989     -8501.988956055     -8499.770372692        24.270970639
       188          188.000000         2.038236886       297.973858837     -8501.966898614     -8499.769386507        24.186356154
       189          189.000000         2.041191765       298.405838391     -8501.970542090     -8499.769544290        24.469252332
       190          190.000000         2.066886573       302.162212951     -8501.997807529     -8499.770585850        24.126474856
       191          191.000000         2.099448094       306.922445706     -8502.032270101     -8499.771950931        26.778412160
       192          192.000000         2.118336405       309.683764995     -8502.052581127     -8499.772825432        23.980510146
       193          193.000000         2.111542180       308.690503875     -8502.045817414     -8499.772296911        20.985071866
       194          194.000000         2.087249796       305.139152528     -8502.020380164     -8499.770589085        24.142277565
       195          195.000000         2.069676064       302.570014054     -8502.002049379     -8499.769270979        24.072479940
       196          196.000000         2.076792062       303.610315738     -8502.010242162     -8499.769787456        24.304541858
       197          197.000000         2.100918727       307.137440359     -8502.036951356     -8499.771803451        23.945876686
       198          198.000000         2.114893166       309.180391148     -8502.052781383     -8499.773081005        23.589550335
       199          199.000000         2.101306515       307.194131850     -8502.038915814     -8499.772215228        24.091293415
       200          200.000000         2.071269529       302.802965911     -8502.007539625     -8499.770288992        24.053831654
       201          201.000000         2.051323597       299.887030761     -8501.987086027     -8499.769200466        24.046072076
       202          202.000000         2.057465706       300.784957883     -8501.994235305     -8499.769631389        23.799826930
       203          203.000000         2.084238635       304.698944959     -8502.022882905     -8499.770926701        20.972169620
       204          204.000000         2.112015877       308.759754658     -8502.052612533     -8499.772288577        23.996808705
       205          205.000000         2.120820480       310.046916863     -8502.062481948     -8499.772748947        24.229076129
       206          206.000000         2.104098992       307.602369635     -8502.045447590     -8499.771822354        23.943940581
       207          207.000000         2.075623210       303.439438991     -8502.015840656     -8499.770076770        23.902425754
       208          208.000000         2.060622116       301.246399590     -8502.000393298     -8499.769020327        24.104188613
       209          209.000000         2.073442155       303.120586306     -8502.014719318     -8499.769916932        23.860057124
       210          210.000000         2.101756291       307.259885528     -8502.045646502     -8499.771912671        23.820131234
       211          211.000000         2.118175330       309.660217140     -8502.063781606     -8499.772997781        23.679900255
       212          212.000000         2.106978934       308.023393948     -8502.052572833     -8499.772343656        24.065596125
       213          213.000000         2.077204818       303.670657392     -8502.021704420     -8499.770605958        23.925443774
       214          214.000000         2.053239030       300.167051774     -8501.997116828     -8499.769346583        24.247039598
       215          215.000000         2.053234331       300.166364833     -8501.997930524     -8499.769533000        20.854178450
       216          216.000000         2.075095890       303.362349149     -8502.021672975     -8499.770780454        24.306855318
       217          217.000000         2.100890351       307.133292026     -8502.049418152     -8499.772088306        23.931013588
       218          218.000000         2.111397677       308.669378676     -8502.061022482     -8499.772529912        23.890280770
       219          219.000000         2.100283151       307.044524369     -8502.049839173     -8499.771796892        24.101742450
       220          220.000000         2.078579755       303.871662127     -8502.027486005     -8499.770481168        24.652291945
       221          221.000000         2.065546220       301.966263978     -8502.014363965     -8499.769729290        24.613803080
       222          222.000000         2.071918231       302.897800919     -8502.021979921     -8499.770310313        24.077558812
       223          223.000000         2.090635779       305.634155951     -8502.042489984     -8499.771434129        20.540904705
       224          224.000000         2.105873631       307.861807566     -8502.059163298     -8499.772190223        23.911417746
       225          225.000000         2.106227574       307.913551167     -8502.060330139     -8499.772313175        23.933128283
       226          226.000000         2.090808026       305.659337184     -8502.044727272     -8499.771434307        24.068574408
       227          227.000000         2.072888772       303.039686229     -8502.026059774     -8499.769990822        23.984355072